

19137 atoms
3 atom types

0.0 90.445319999999995 xlo xhi
0.0 78.327200000000005 ylo yhi
0.0 50 zlo zhi

Masses

1 6.9409999999999998 # Li
2 6.9409999999999998 # Li
3 15.999000000000001 # O

Atoms # atomic

1   1                        0                      0     1.9780818289430417
